 Gaussian 16, Revision C.01,
 Gaussian 16:  ES64L-G16RevC.01  3-Jul-2019

 --------------------------------------------
 #P FREQ=SaveNormalModes wB97XD/6-31G* NoSymm
 --------------------------------------------

 ---------------------------------
 TS Geometry (OPTIMIZED FROM QST3)
 ---------------------------------
 Symbolic Z-matrix:
 Charge =  0 Multiplicity = 1

                          Input orientation:
 ---------------------------------------------------------------------
 Center     Atomic      Atomic             Coordinates (Angstroms)
 Number     Number       Type             X           Y           Z
 ---------------------------------------------------------------------
      1          6           0       -0.714560   -1.264310    0.128260
      2          6           0        0.661840   -1.095650    0.034600
      3          6           0        1.189720    0.185350   -0.146000
      4          6           0        0.339950    1.287970   -0.231760
      5          6           0       -1.034940    1.106980   -0.136730
      6          6           0       -1.567520   -0.166890    0.043330
      7          1           0       -1.120500   -2.261450    0.268630
      8          1           0        1.328770   -1.950300    0.100570
      9          1           0        0.768920    2.274280   -0.372060
     10          1           0       -1.692700    1.968040   -0.203970
     11          1           0       -2.641590   -0.304350    0.117140
     12          7           0        2.566980    0.405980   -0.245940
     13          6           0        3.598980   -0.217580   -0.226550
     14          8           0        4.665640   -0.705520   -0.225280
     15          1           0       34.948018    1.096887   -0.321807
     16          8           0       36.034829    0.307208   -0.310839
     17          6           0       36.987644    0.359038    0.754223
     18          6           0       36.951135    1.413679    1.676352
     19          6           0       37.957912   -0.644808    0.875854
     20          6           0       37.884895    1.464474    2.720111
     21          1           0       36.210315    2.180139    1.583483
     22          6           0       38.891672   -0.594013    1.919614
     23          1           0       37.985787   -1.450050    0.171789
     24          6           0       38.855165    0.460629    2.841741
     25          1           0       37.857021    2.269717    3.424176
     26          1           0       39.632492   -1.360473    2.012483
     27          1           0       39.568111    0.499413    3.638675
 ---------------------------------------------------------------------

 SCF Done:  E(RwB97XD) =  -706.875812979     A.U. after   17 cycles

 Alpha  occ. eigenvalues --  -19.32642 -19.30825 -14.48985 -10.44896 -10.36789
 Alpha  occ. eigenvalues --  -10.36370 -10.31603 -10.31494 -10.31395 -10.31212
 Alpha  occ. eigenvalues --  -10.31053 -10.30292 -10.30217 -10.29898 -10.29798
 Alpha  occ. eigenvalues --  -10.29346  -1.21118  -1.08779  -1.07209  -0.96543
 Alpha  occ. eigenvalues --   -0.94182  -0.86737  -0.85828  -0.84297  -0.82531
 Alpha  occ. eigenvalues --   -0.74756  -0.71495  -0.70277  -0.68342  -0.65701
 Alpha  occ. eigenvalues --   -0.60827  -0.60135  -0.58721  -0.57153  -0.56826
 Alpha  occ. eigenvalues --   -0.56153  -0.54178  -0.54003  -0.53003  -0.51880
 Alpha  occ. eigenvalues --   -0.51760  -0.50631  -0.48049  -0.47563  -0.45573
 Alpha  occ. eigenvalues --   -0.44972  -0.44327  -0.43462  -0.41073  -0.40982
 Alpha  occ. eigenvalues --   -0.40056  -0.38855  -0.33963  -0.32408  -0.31066
 Alpha  occ. eigenvalues --   -0.29301
 Alpha virt. eigenvalues --    0.02550   0.04609   0.05927   0.07036   0.08590
 Alpha virt. eigenvalues --    0.08966   0.16047   0.17379   0.17829   0.20186
 Alpha virt. eigenvalues --    0.22652   0.23470   0.23669   0.24454   0.25193

 Mulliken charges:
               1
     1  C   -0.177593
     2  C   -0.181214
     3  C    0.271051
     4  C   -0.175863
     5  C   -0.173825
     6  C   -0.162744
     7  H    0.177136
     8  H    0.178057
     9  H    0.186799
    10  H    0.176593
    11  H    0.173423
    12  N   -0.517759
    13  C    0.638568
    14  O   -0.412629
    15  H    0.342355
    16  O   -0.649022
    17  C    0.407508
    18  C   -0.222522
    19  C   -0.208475
    20  C   -0.166024
    21  H    0.151478
    22  C   -0.164831
    23  H    0.180076
    24  C   -0.176792
    25  H    0.169231
    26  H    0.173406
    27  H    0.163613
 Sum of Mulliken charges =  -0.00000

 Dipole moment (field-independent basis, Debye):
    X=             -3.4172    Y=              1.0008    Z=              0.7995  Tot=              3.6494
 Quadrupole moment (field-independent basis, Debye-Ang):
   XX=           -158.8545   YY=            -81.9905   ZZ=            -92.1538
   XY=             34.0862   XZ=             27.4695   YZ=              1.0635

  Exact polarizability:     189.257     -30.321     137.788      22.369       7.478      90.216
 Approx polarizability:     209.767     -38.611     169.371      22.806       9.862     107.454

 ******    4 imaginary frequencies (negative Signs) ******

                      1                      2                      3
                      A                      A                      A
 Frequencies --   -660.2219               -40.9680                -3.0727
 Red. masses --      1.0553                 3.4832                 7.9743
 Frc consts  --      0.2710                 0.0034                 0.0000
 IR Inten    --      1.8157                 0.0156                 0.5445

                      4                      5                      6
                      A                      A                      A
 Frequencies --     -0.0675                11.2903                51.9456
 Red. masses --      7.7438                 6.9903                 4.1739
 Frc consts  --      0.0000                 0.0005                 0.0066
 IR Inten    --      0.0000                 0.4152                 0.0650

                      7                      8                      9
                      A                      A                      A
 Frequencies --     56.1874                68.6628                89.4903
 Red. masses --      7.4387                 4.5667                 7.9079
 Frc consts  --      0.0138                 0.0127                 0.0373
 IR Inten    --      0.0851                 0.3432                 2.1418

                     10                     11                     12
                      A                      A                      A
 Frequencies --    246.8449               253.5722               389.7987
 Red. masses --      5.3779                 4.6424                 6.0505
 Frc consts  --      0.1931                 0.1759                 0.5417
 IR Inten    --      0.1459                 0.5218                10.8630

                     13                     14                     15
                      A                      A                      A
 Frequencies --    422.0276               423.5636               453.9621
 Red. masses --      2.6394                 3.0014                 4.6787
 Frc consts  --      0.2770                 0.3173                 0.5681
 IR Inten    --      0.3927                 0.0013                 2.0331

                     16                     17                     18
                      A                      A                      A
 Frequencies --    473.8514               498.1396               513.5465
 Red. masses --      8.6322                 2.0628                 3.0847
 Frc consts  --      1.1420                 0.3016                 0.4793
 IR Inten    --      1.2720                17.1736                 2.1391

                     19                     20                     21
                      A                      A                      A
 Frequencies --    515.7688               572.6421               627.9833
 Red. masses --      6.6046                12.0679                 6.2536
 Frc consts  --      1.0352                 2.3316                 1.4530
 IR Inten    --      3.0463                28.3435                 0.3512

                     22                     23                     24
                      A                      A                      A
 Frequencies --    635.8448               648.2208               658.3221
 Red. masses --      6.8181                10.1239                 1.5462
 Frc consts  --      1.6241                 2.5064                 0.3948
 IR Inten    --      4.5486                27.5663                55.4526

                     25                     26                     27
                      A                      A                      A
 Frequencies --    711.4235               730.2039               758.1514
 Red. masses --      2.1571                 2.4440                 1.3616
 Frc consts  --      0.6432                 0.7678                 0.4611
 IR Inten    --     20.2166                20.5100                 0.0900

                     28                     29                     30
                      A                      A                      A
 Frequencies --    770.5993               782.0401               788.2415
 Red. masses --      5.7231                 1.6032                 6.5975
 Frc consts  --      2.0024                 0.5777                 2.4152
 IR Inten    --     42.8292                58.1415                14.0866

                     31                     32                     33
                      A                      A                      A
 Frequencies --    843.6770               860.5289               909.7547
 Red. masses --      1.7013                 1.2497                 1.4338
 Frc consts  --      0.7135                 0.5453                 0.6992
 IR Inten    --     12.2357                 0.0715                 0.2383

                     34                     35                     36
                      A                      A                      A
 Frequencies --    934.9002               936.7669               989.7677
 Red. masses --      1.3443                 1.4158                 1.3458
 Frc consts  --      0.6923                 0.7320                 0.7768
 IR Inten    --      0.1665                 6.0208                 0.0949

                     37                     38                     39
                      A                      A                      A
 Frequencies --   1016.2283              1017.1190              1029.0308
 Red. masses --      1.2780                 6.0302                 6.1097
 Frc consts  --      0.7776                 3.6756                 3.8118
 IR Inten    --      0.2341                 0.4431                 0.5537

                     40                     41                     42
                      A                      A                      A
 Frequencies --   1035.3706              1068.2851              1082.7236
 Red. masses --      2.0116                 2.2644                 1.1439
 Frc consts  --      1.2705                 1.5225                 0.7901
 IR Inten    --      4.8732                 5.4197                74.5305

                     43                     44                     45
                      A                      A                      A
 Frequencies --   1084.9081              1123.5548              1138.3218
 Red. masses --      1.3193                 1.4977                 3.3274
 Frc consts  --      0.9149                 1.1139                 2.5403
 IR Inten    --     25.8146                 9.3327               107.8915

                     46                     47                     48
                      A                      A                      A
 Frequencies --   1159.6235              1176.5597              1176.8184
 Red. masses --      1.1131                 1.1854                 3.6163
 Frc consts  --      0.8819                 0.9668                 2.9508
 IR Inten    --      1.9789                 1.6413                42.3231

                     49                     50                     51
                      A                      A                      A
 Frequencies --   1202.4974              1221.3689              1284.6735
 Red. masses --      1.1267                 1.1469                 2.6525
 Frc consts  --      0.9599                 1.0081                 2.5793
 IR Inten    --      0.1145                 0.0408                17.5505

                     52                     53                     54
                      A                      A                      A
 Frequencies --   1315.3004              1342.2311              1373.0791
 Red. masses --      1.8237                 2.9879                 1.7303
 Frc consts  --      1.8589                 3.1716                 1.9220
 IR Inten    --      1.7166                 4.6403                 0.7652

                     55                     56                     57
                      A                      A                      A
 Frequencies --   1397.8040              1496.9437              1504.1605
 Red. masses --      1.2509                 2.2147                 2.2935
 Frc consts  --      1.4400                 2.9240                 3.0573
 IR Inten    --    119.3909                27.8889                65.3958

                     58                     59                     60
                      A                      A                      A
 Frequencies --   1513.8293              1517.8220              1601.7177
 Red. masses --      2.6129                 2.5944                 4.9783
 Frc consts  --      3.5280                 3.5215                 7.5249
 IR Inten    --      4.4178                 2.2243                66.9595

                     61                     62                     63
                      A                      A                      A
 Frequencies --   1637.0777              1651.1900              1675.9011
 Red. masses --      6.0057                 6.2784                 6.0540
 Frc consts  --      9.4832                10.0853                10.0182
 IR Inten    --     40.3371                20.0871                 9.5463

                     64                     65                     66
                      A                      A                      A
 Frequencies --   1700.4969              2417.3410              3215.0115
 Red. masses --      6.0765                12.7035                 1.0860
 Frc consts  --     10.3527                43.7370                 6.6137
 IR Inten    --     69.1235              1606.4703                 2.0224

                     67                     68                     69
                      A                      A                      A
 Frequencies --   3222.6592              3231.2818              3240.6021
 Red. masses --      1.0893                 1.0936                 1.0963
 Frc consts  --      6.6657                 6.7275                 6.7833
 IR Inten    --      2.5376                18.5234                17.3067

                     70                     71                     72
                      A                      A                      A
 Frequencies --   3248.8974              3359.4686              3367.3879
 Red. masses --      1.0975                 1.0858                 1.0887
 Frc consts  --      6.8255                 7.2199                 7.2738
 IR Inten    --      4.6605                 0.4557                 4.8031

                     73                     74                     75
                      A                      A                      A
 Frequencies --   3373.3999              3381.0384              3388.3614
 Red. masses --      1.0907                 1.0945                 1.0969
 Frc consts  --      7.3127                 7.3716                 7.4201
 IR Inten    --     14.9089                21.1146                 6.8462

 - Thermochemistry -
 -------------------
 Temperature   298.150 Kelvin.  Pressure   1.00000 Atm.
 Atom     1 has atomic number  6 and mass  12.00000

 Molecular mass:   213.07898 amu.
 Principal axes and moments of inertia in atomic units:
                           1         2         3
     Eigenvalues --  1003.36975********************
           X            0.99900  -0.02664  -0.03587
           Y            0.01175   0.93121  -0.36429
           Z            0.04311   0.36351   0.93059
 This molecule is an asymmetric top.
 Rotational symmetry number  1.
 Warning -- assumption of classical behavior for rotation
           may cause significant error
 Rotational temperatures (Kelvin)      0.08632     0.00034     0.00034
 Rotational constants (GHZ):           1.79868     0.00716     0.00715
    4 imaginary frequencies ignored.
 Zero-point vibrational energy     536033.5 (Joules/Mol)
                                  128.11509 (Kcal/Mol)
 Warning -- explicit consideration of  16 degrees of freedom as
           vibrations may cause significant error
 Vibrational temperatures:     16.24    74.74    80.84    98.79   128.76
          (Kelvin)            355.15   364.83   560.83   607.20   609.41
                              653.15   681.77   716.71   738.88   742.08
                              823.90   903.53   914.84   932.65   947.18
                             1023.58  1050.60  1090.81  1108.72  1125.18
                             1134.10  1213.86  1238.11  1308.93  1345.11
                             1347.80  1424.05  1462.13  1463.41  1480.55
                             1489.67  1537.02  1557.80  1560.94  1616.54
                             1637.79  1668.44  1692.81  1693.18  1730.13
                             1757.28  1848.36  1892.42  1931.17  1975.55
                             2011.13  2153.77  2164.15  2178.06  2183.81
                             2304.51  2355.39  2375.69  2411.25  2446.64
                             3478.01  4625.68  4636.69  4649.09  4662.50
                             4674.44  4833.53  4844.92  4853.57  4864.56
                             4875.10

 Zero-point correction=                           0.204164 (Hartree/Particle)
 Thermal correction to Energy=                    0.216168
 Thermal correction to Enthalpy=                  0.217112
 Thermal correction to Gibbs Free Energy=         0.159454
 Sum of electronic and zero-point Energies=           -706.671649
 Sum of electronic and thermal Energies=              -706.659645
 Sum of electronic and thermal Enthalpies=            -706.658701
 Sum of electronic and thermal Free Energies=         -706.716359

                     E (Thermal)             CV                S
                      KCal/Mol        Cal/Mol-Kelvin    Cal/Mol-Kelvin
 Total                  135.647             47.209            121.351
 Electronic               0.000              0.000              0.000
 Translational            0.889              2.981             41.973
 Rotational               0.889              2.981             39.388
 Vibrational            133.870             41.247             39.990
 Vibration     1          0.593              1.987              7.770
 Vibration     2          0.596              1.977              4.742
 Vibration     3          0.596              1.975              4.587
 Vibration     4          0.598              1.969              4.191
 Vibration     5          0.602              1.957              3.671
 Vibration     6          0.661              1.768              1.753
 Vibration     7          0.665              1.757              1.706
 Vibration     8          0.758              1.492              1.001
 Vibration     9          0.784              1.422              0.885
 Vibration    10          0.786              1.419              0.880
 Vibration    11          0.812              1.352              0.784
 Vibration    12          0.831              1.308              0.727
 Vibration    13          0.854              1.254              0.663
 Vibration    14          0.869              1.220              0.625
 Vibration    15          0.871              1.215              0.620
 Vibration    16          0.929              1.090              0.499

 Normal termination of Gaussian 16 at Fri May 31 12:00:08 2024.
