 Gaussian 16, Revision C.01,
 Gaussian 16:  ES64L-G16RevC.01  3-Jul-2019

 ---------------------------
 #P OPT wB97XD/6-31G* NoSymm
 ---------------------------

 --------------------------
 PHI Geometry (Unoptimized)
 --------------------------
 Symbolic Z-matrix:
 Charge =  0 Multiplicity = 1

 SCF Done:  E(RwB97XD) =  -706.902703924     A.U. after   17 cycles
 SCF Done:  E(RwB97XD) =  -706.950111857     A.U. after   16 cycles
 SCF Done:  E(RwB97XD) =  -706.930931216     A.U. after   16 cycles
 SCF Done:  E(RwB97XD) =  -706.980919978     A.U. after   14 cycles
 SCF Done:  E(RwB97XD) =  -706.989316678     A.U. after   14 cycles
 SCF Done:  E(RwB97XD) =  -706.992092374     A.U. after   15 cycles
 SCF Done:  E(RwB97XD) =  -706.992305026     A.U. after   13 cycles
 SCF Done:  E(RwB97XD) =  -706.992555037     A.U. after   11 cycles
 SCF Done:  E(RwB97XD) =  -706.992638228     A.U. after   11 cycles
 SCF Done:  E(RwB97XD) =  -706.992651547     A.U. after   10 cycles
 SCF Done:  E(RwB97XD) =  -706.992786782     A.U. after   13 cycles
 SCF Done:  E(RwB97XD) =  -706.992817275     A.U. after   12 cycles
 SCF Done:  E(RwB97XD) =  -706.992895499     A.U. after   11 cycles
 SCF Done:  E(RwB97XD) =  -706.992717512     A.U. after   15 cycles
 SCF Done:  E(RwB97XD) =  -706.993113764     A.U. after   12 cycles
 SCF Done:  E(RwB97XD) =  -706.993133263     A.U. after   11 cycles
 SCF Done:  E(RwB97XD) =  -706.993142250     A.U. after   11 cycles
 SCF Done:  E(RwB97XD) =  -706.993146753     A.U. after   10 cycles
 SCF Done:  E(RwB97XD) =  -706.993150424     A.U. after   10 cycles
 SCF Done:  E(RwB97XD) =  -706.993151466     A.U. after    9 cycles
 Optimization completed.
    -- Stationary point found.

                          Input orientation:
 ---------------------------------------------------------------------
 Center     Atomic      Atomic             Coordinates (Angstroms)
 Number     Number       Type             X           Y           Z
 ---------------------------------------------------------------------
      1          6           0       -0.882407   -1.101256   -0.612885
      2          6           0        0.460889   -1.058447   -0.251952
      3          6           0        1.049828    0.174458    0.040633
      4          6           0        0.283972    1.342571   -0.032075
      5          6           0       -1.055130    1.281743   -0.393240
      6          6           0       -1.648519    0.057319   -0.686930
      7          1           0       -1.331948   -2.063793   -0.838505
      8          1           0        1.050255   -1.963212   -0.195704
      9          1           0        0.740326    2.303456    0.194994
     10          1           0       -1.634719    2.198557   -0.444640
     11          1           0       -2.695201    0.008008   -0.969642
     12          7           0        2.399634    0.315820    0.414526
     13          6           0        3.345549   -0.659991    0.534740
     14          1           0        2.720924    1.250754    0.617326
     15          8           0        3.209453   -1.844566    0.348535
     16          8           0        4.510245   -0.054223    0.916174
     17          6           0        5.644675   -0.832147    1.103165
     18          6           0        6.316580   -0.674151    2.307557
     19          6           0        6.133577   -1.666134    0.104342
     20          6           0        7.504864   -1.367035    2.518657
     21          1           0        5.905221   -0.011533    3.061707
     22          6           0        7.317770   -2.359267    0.331576
     23          1           0        5.590128   -1.778665   -0.825891
     24          6           0        8.006348   -2.212498    1.533469
     25          1           0        8.035868   -1.245811    3.457815
     26          1           0        7.704487   -3.017744   -0.440132
     27          1           0        8.931286   -2.755527    1.700586
 ---------------------------------------------------------------------

 Alpha  occ. eigenvalues --  -19.32840 -19.25558 -14.50097 -10.46265 -10.36594
 Alpha  occ. eigenvalues --  -10.35364 -10.30734 -10.30646 -10.30613 -10.30557
 Alpha  occ. eigenvalues --  -10.30519 -10.30466 -10.30291 -10.30182 -10.29716
 Alpha  occ. eigenvalues --  -10.29548  -1.22596  -1.13166  -1.05738  -0.96172
 Alpha  occ. eigenvalues --   -0.94928  -0.86675  -0.85155  -0.84737  -0.83437
 Alpha  occ. eigenvalues --   -0.75851  -0.72017  -0.71076  -0.69603  -0.66557
 Alpha  occ. eigenvalues --   -0.64740  -0.62239  -0.59831  -0.58331  -0.57528
 Alpha  occ. eigenvalues --   -0.55830  -0.53889  -0.52859  -0.52710  -0.52009
 Alpha  occ. eigenvalues --   -0.51167  -0.50629  -0.50034  -0.47293  -0.45516
 Alpha  occ. eigenvalues --   -0.44676  -0.44306  -0.43653  -0.42807  -0.40728
 Alpha  occ. eigenvalues --   -0.39415  -0.36787  -0.32980  -0.32818  -0.31894
 Alpha  occ. eigenvalues --   -0.29391
 Alpha virt. eigenvalues --    0.06002   0.06751   0.06972   0.07635   0.14118
 Alpha virt. eigenvalues --    0.16301   0.16952   0.18342   0.22634   0.22991
 Alpha virt. eigenvalues --    0.23693   0.24263   0.24635   0.25469   0.25688

 Mulliken charges:
               1
     1  C   -0.177817
     2  C   -0.198743
     3  C    0.352592
     4  C   -0.230777
     5  C   -0.168784
     6  C   -0.167574
     7  H    0.172046
     8  H    0.220709
     9  H    0.159807
    10  H    0.169408
    11  H    0.166542
    12  N   -0.778570
    13  C    0.827787
    14  H    0.369569
    15  O   -0.493382
    16  O   -0.572903
    17  C    0.350625
    18  C   -0.197600
    19  C   -0.171099
    20  C   -0.176582
    21  H    0.178325
    22  C   -0.180430
    23  H    0.190654
    24  C   -0.161368
    25  H    0.173000
    26  H    0.174688
    27  H    0.169877
 Sum of Mulliken charges =  -0.00000

 Dipole moment (field-independent basis, Debye):
    X=              0.4434    Y=              2.0052    Z=              0.2784  Tot=              2.0724
 Quadrupole moment (field-independent basis, Debye-Ang):
   XX=            -75.3358   YY=            -88.1996   ZZ=            -88.3731
   XY=              0.5293   XZ=              5.4565   YZ=              3.6895

 Normal termination of Gaussian 16 at Tue May 28 16:50:25 2024.
