 Gaussian 16, Revision C.01,
 Gaussian 16:  ES64L-G16RevC.01  3-Jul-2019

 --------------------------------
 #P OPT=QST3 wB97XD/6-31G* NoSymm
 --------------------------------

 ---------
 Reactants
 ---------
 Symbolic Z-matrix:
 Charge =  0 Multiplicity = 1

 -------
 Product
 -------
 Symbolic Z-matrix:
 Charge =  0 Multiplicity = 1

 ----------------------
 Transition State Guess
 ----------------------
 Symbolic Z-matrix:
 Charge =  0 Multiplicity = 1

 SCF Done:  E(RwB97XD) =  -706.823338545     A.U. after   17 cycles
 SCF Done:  E(RwB97XD) =  -706.820838179     A.U. after   14 cycles
 SCF Done:  E(RwB97XD) =  -706.821804518     A.U. after   14 cycles
 SCF Done:  E(RwB97XD) =  -706.827229051     A.U. after   14 cycles
 SCF Done:  E(RwB97XD) =  -706.832358188     A.U. after   15 cycles
 SCF Done:  E(RwB97XD) =  -706.856106346     A.U. after   15 cycles
 SCF Done:  E(RwB97XD) =  -706.886072737     A.U. after   14 cycles
 SCF Done:  E(RwB97XD) =  -706.897628029     A.U. after   14 cycles
 SCF Done:  E(RwB97XD) =  -706.902207465     A.U. after   14 cycles
 SCF Done:  E(RwB97XD) =  -706.902435421     A.U. after   14 cycles
 SCF Done:  E(RwB97XD) =  -706.905877872     A.U. after    8 cycles
 SCF Done:  E(RwB97XD) =  -706.905878443     A.U. after    9 cycles
 SCF Done:  E(RwB97XD) =  -706.905878817     A.U. after    9 cycles
 SCF Done:  E(RwB97XD) =  -706.905878960     A.U. after    8 cycles
 SCF Done:  E(RwB97XD) =  -706.905879060     A.U. after    8 cycles
 SCF Done:  E(RwB97XD) =  -706.905879117     A.U. after    8 cycles
 SCF Done:  E(RwB97XD) =  -706.905879166     A.U. after    8 cycles
 SCF Done:  E(RwB97XD) =  -706.905879205     A.U. after    7 cycles
 SCF Done:  E(RwB97XD) =  -706.905879257     A.U. after    8 cycles
 SCF Done:  E(RwB97XD) =  -706.905879294     A.U. after    8 cycles
 Optimization completed.
    -- Stationary point found.

                          Input orientation:
 ---------------------------------------------------------------------
 Center     Atomic      Atomic             Coordinates (Angstroms)
 Number     Number       Type             X           Y           Z
 ---------------------------------------------------------------------
      1          6           0       -0.493537   -1.306370    0.183004
      2          6           0        0.897095   -1.324857    0.176812
      3          6           0        1.601165   -0.119523    0.116571
      4          6           0        0.908454    1.090957    0.064048
      5          6           0       -0.480865    1.096234    0.071282
      6          6           0       -1.188749   -0.101552    0.130695
      7          1           0       -1.035826   -2.245988    0.229683
      8          1           0        1.433081   -2.267396    0.218900
      9          1           0        1.469607    2.019069    0.016994
     10          1           0       -1.011964    2.042450    0.029800
     11          1           0       -2.274129   -0.095918    0.136212
     12          7           0        3.009332   -0.058206    0.110914
     13          6           0        3.805092   -1.082023    0.126825
     14          1           0        4.139229    0.625859    0.072617
     15          8           0        4.001108   -2.242945    0.180002
     16          8           0        5.162630    0.012635    0.013027
     17          6           0        6.014895    0.019144    1.094870
     18          6           0        5.982125    1.069950    2.006921
     19          6           0        6.901683   -1.042356    1.250247
     20          6           0        6.858258    1.056967    3.087968
     21          1           0        5.283010    1.888772    1.863980
     22          6           0        7.764751   -1.046409    2.340611
     23          1           0        6.899222   -1.847184    0.523469
     24          6           0        7.748623    0.000621    3.259655
     25          1           0        6.840726    1.877090    3.799272
     26          1           0        8.457148   -1.872720    2.469576
     27          1           0        8.428589   -0.006239    4.105558
 ---------------------------------------------------------------------

 Alpha  occ. eigenvalues --  -19.32166 -19.31019 -14.48365 -10.47074 -10.36708
 Alpha  occ. eigenvalues --  -10.35214 -10.31087 -10.30972 -10.30926 -10.30702
 Alpha  occ. eigenvalues --  -10.30668 -10.30512 -10.30509 -10.30449 -10.30423
 Alpha  occ. eigenvalues --  -10.30191  -1.21298  -1.16395  -1.05598  -0.96170
 Alpha  occ. eigenvalues --   -0.95200  -0.86340  -0.85409  -0.85044  -0.83447
 Alpha  occ. eigenvalues --   -0.74661  -0.71726  -0.71208  -0.69394  -0.65594
 Alpha  occ. eigenvalues --   -0.63769  -0.60896  -0.59533  -0.58316  -0.56896
 Alpha  occ. eigenvalues --   -0.56770  -0.54598  -0.53814  -0.52490  -0.52246
 Alpha  occ. eigenvalues --   -0.51398  -0.50996  -0.49472  -0.47607  -0.47042
 Alpha  occ. eigenvalues --   -0.45011  -0.44494  -0.44022  -0.42936  -0.41874
 Alpha  occ. eigenvalues --   -0.40214  -0.37841  -0.33427  -0.33160  -0.31329
 Alpha  occ. eigenvalues --   -0.30027
 Alpha virt. eigenvalues --    0.05216   0.06308   0.06324   0.06691   0.11265
 Alpha virt. eigenvalues --    0.13827   0.16957   0.17497   0.17973   0.22610
 Alpha virt. eigenvalues --    0.22933   0.23419   0.24206   0.24677   0.25487

 Mulliken charges:
               1
     1  C   -0.180388
     2  C   -0.201932
     3  C    0.303033
     4  C   -0.186153
     5  C   -0.174076
     6  C   -0.164415
     7  H    0.173593
     8  H    0.194288
     9  H    0.169581
    10  H    0.171235
    11  H    0.168762
    12  N   -0.743812
    13  C    0.764287
    14  H    0.488902
    15  O   -0.418801
    16  O   -0.699536
    17  C    0.358445
    18  C   -0.210062
    19  C   -0.185339
    20  C   -0.173876
    21  H    0.172698
    22  C   -0.175534
    23  H    0.193476
    24  C   -0.164462
    25  H    0.174059
    26  H    0.175670
    27  H    0.170356
 Sum of Mulliken charges =  -0.00000

 Dipole moment (field-independent basis, Debye):
    X=             -0.3904    Y=              1.5115    Z=              1.1074  Tot=              1.9140
 Quadrupole moment (field-independent basis, Debye-Ang):
   XX=            -82.5474   YY=            -86.9501   ZZ=            -90.1214
   XY=              4.0430   XZ=              9.7056   YZ=              2.0630

 Normal termination of Gaussian 16 at Tue May 28 17:05:14 2024.
