 Gaussian 16, Revision C.01,
 Gaussian 16:  ES64L-G16RevC.01  3-Jul-2019

 ---------------------------
 #P OPT wB97XD/6-31G* NoSymm
 ---------------------------

 --------------------------
 PHI Geometry (Unoptimized)
 --------------------------
 Symbolic Z-matrix:
 Charge =  0 Multiplicity = 1

 SCF Done:  E(RwB97XD) =  -399.498661687     A.U. after   17 cycles
 SCF Done:  E(RwB97XD) =  -399.565084413     A.U. after   16 cycles
 SCF Done:  E(RwB97XD) =  -399.562171354     A.U. after   16 cycles
 SCF Done:  E(RwB97XD) =  -399.589935004     A.U. after   15 cycles
 SCF Done:  E(RwB97XD) =  -399.591222480     A.U. after   13 cycles
 SCF Done:  E(RwB97XD) =  -399.591840109     A.U. after   13 cycles
 SCF Done:  E(RwB97XD) =  -399.591572363     A.U. after   13 cycles
 SCF Done:  E(RwB97XD) =  -399.592098929     A.U. after   13 cycles
 SCF Done:  E(RwB97XD) =  -399.592142005     A.U. after   12 cycles
 SCF Done:  E(RwB97XD) =  -399.592143132     A.U. after    9 cycles
 Optimization completed.
    -- Stationary point found.

                          Input orientation:
 ---------------------------------------------------------------------
 Center     Atomic      Atomic             Coordinates (Angstroms)
 Number     Number       Type             X           Y           Z
 ---------------------------------------------------------------------
      1          6           0       -0.714562   -1.264313    0.128265
      2          6           0        0.661843   -1.095654    0.034599
      3          6           0        1.189716    0.185353   -0.145998
      4          6           0        0.339952    1.287971   -0.231765
      5          6           0       -1.034937    1.106981   -0.136725
      6          6           0       -1.567522   -0.166888    0.043328
      7          1           0       -1.120501   -2.261453    0.268630
      8          1           0        1.328769   -1.950297    0.100573
      9          1           0        0.768925    2.274276   -0.372057
     10          1           0       -1.692702    1.968044   -0.203965
     11          1           0       -2.641586   -0.304351    0.117143
     12          7           0        2.566981    0.405985   -0.245945
     13          6           0        3.598981   -0.217576   -0.226554
     14          8           0        4.665641   -0.705525   -0.225276
 ---------------------------------------------------------------------

 Alpha  occ. eigenvalues --  -19.32632 -14.48976 -10.44887 -10.36781 -10.31595
 Alpha  occ. eigenvalues --  -10.31487 -10.31387 -10.31204 -10.31045  -1.21109
 Alpha  occ. eigenvalues --   -1.07200  -0.96535  -0.86729  -0.85820  -0.74748
 Alpha  occ. eigenvalues --   -0.71487  -0.65693  -0.60127  -0.58713  -0.57145
 Alpha  occ. eigenvalues --   -0.56144  -0.53995  -0.52994  -0.51752  -0.48041
 Alpha  occ. eigenvalues --   -0.45565  -0.44319  -0.41065  -0.38846  -0.33956
 Alpha  occ. eigenvalues --   -0.31058
 Alpha virt. eigenvalues --    0.04618   0.05934   0.08975   0.16055   0.17386
 Alpha virt. eigenvalues --    0.20195   0.22660   0.23677   0.25438   0.26653
 Alpha virt. eigenvalues --    0.26787   0.34588   0.36522   0.37501   0.40595

 Mulliken charges:
               1
     1  C   -0.177594
     2  C   -0.181214
     3  C    0.271050
     4  C   -0.175860
     5  C   -0.173826
     6  C   -0.162745
     7  H    0.177121
     8  H    0.178055
     9  H    0.186813
    10  H    0.176589
    11  H    0.173410
    12  N   -0.517756
    13  C    0.638574
    14  O   -0.412618
 Sum of Mulliken charges =  -0.00000

 Dipole moment (field-independent basis, Debye):
    X=             -2.5417    Y=             -0.0450    Z=              0.1413  Tot=              2.5460
 Quadrupole moment (field-independent basis, Debye-Ang):
   XX=            -59.2981   YY=            -45.3610   ZZ=            -52.6681
   XY=              1.2747   XZ=              0.3503   YZ=             -0.9443

 Normal termination of Gaussian 16 at Tue May 28 16:31:41 2024.
