 Gaussian 16, Revision C.01,
 Gaussian 16:  ES64L-G16RevC.01  3-Jul-2019

 --------------------------------------------
 #P FREQ=SaveNormalModes wB97XD/6-31G* NoSymm
 --------------------------------------------

 ---------------------------------
 TS Geometry (OPTIMIZED FROM QST3)
 ---------------------------------
 Symbolic Z-matrix:
 Charge =  0 Multiplicity = 1

                          Input orientation:
 ---------------------------------------------------------------------
 Center     Atomic      Atomic             Coordinates (Angstroms)
 Number     Number       Type             X           Y           Z
 ---------------------------------------------------------------------
      1          6           0       -0.493540   -1.306370    0.183000
      2          6           0        0.897090   -1.324860    0.176810
      3          6           0        1.601160   -0.119520    0.116570
      4          6           0        0.908450    1.090960    0.064050
      5          6           0       -0.480860    1.096230    0.071280
      6          6           0       -1.188750   -0.101550    0.130700
      7          1           0       -1.035830   -2.245990    0.229680
      8          1           0        1.433080   -2.267400    0.218900
      9          1           0        1.469610    2.019070    0.016990
     10          1           0       -1.011960    2.042450    0.029800
     11          1           0       -2.274130   -0.095920    0.136210
     12          7           0        3.009330   -0.058210    0.110910
     13          6           0        3.805090   -1.082020    0.126820
     14          1           0        4.139230    0.625860    0.072620
     15          8           0        4.001110   -2.242950    0.180000
     16          8           0        5.162630    0.012640    0.013030
     17          6           0        6.014900    0.019140    1.094870
     18          6           0        5.982120    1.069950    2.006920
     19          6           0        6.901680   -1.042360    1.250250
     20          6           0        6.858260    1.056970    3.087970
     21          1           0        5.283010    1.888770    1.863980
     22          6           0        7.764750   -1.046410    2.340610
     23          1           0        6.899220   -1.847180    0.523470
     24          6           0        7.748620    0.000620    3.259650
     25          1           0        6.840730    1.877090    3.799270
     26          1           0        8.457150   -1.872720    2.469580
     27          1           0        8.428590   -0.006240    4.105560
 ---------------------------------------------------------------------

 SCF Done:  E(RwB97XD) =  -706.905879294     A.U. after   16 cycles

 Alpha  occ. eigenvalues --  -19.32166 -19.31019 -14.48365 -10.47074 -10.36708
 Alpha  occ. eigenvalues --  -10.35214 -10.31087 -10.30972 -10.30926 -10.30702
 Alpha  occ. eigenvalues --  -10.30668 -10.30512 -10.30509 -10.30449 -10.30423
 Alpha  occ. eigenvalues --  -10.30191  -1.21297  -1.16395  -1.05598  -0.96170
 Alpha  occ. eigenvalues --   -0.95200  -0.86340  -0.85409  -0.85044  -0.83447
 Alpha  occ. eigenvalues --   -0.74661  -0.71726  -0.71208  -0.69394  -0.65594
 Alpha  occ. eigenvalues --   -0.63769  -0.60896  -0.59533  -0.58316  -0.56896
 Alpha  occ. eigenvalues --   -0.56770  -0.54598  -0.53814  -0.52490  -0.52246
 Alpha  occ. eigenvalues --   -0.51398  -0.50996  -0.49471  -0.47607  -0.47042
 Alpha  occ. eigenvalues --   -0.45011  -0.44493  -0.44022  -0.42936  -0.41874
 Alpha  occ. eigenvalues --   -0.40214  -0.37841  -0.33427  -0.33160  -0.31329
 Alpha  occ. eigenvalues --   -0.30027
 Alpha virt. eigenvalues --    0.05216   0.06308   0.06324   0.06691   0.11265
 Alpha virt. eigenvalues --    0.13827   0.16957   0.17497   0.17973   0.22610
 Alpha virt. eigenvalues --    0.22933   0.23419   0.24206   0.24677   0.25487

 Mulliken charges:
               1
     1  C   -0.180389
     2  C   -0.201930
     3  C    0.303027
     4  C   -0.186148
     5  C   -0.174078
     6  C   -0.164413
     7  H    0.173593
     8  H    0.194289
     9  H    0.169581
    10  H    0.171235
    11  H    0.168763
    12  N   -0.743807
    13  C    0.764287
    14  H    0.488902
    15  O   -0.418810
    16  O   -0.699535
    17  C    0.358446
    18  C   -0.210065
    19  C   -0.185338
    20  C   -0.173875
    21  H    0.172698
    22  C   -0.175533
    23  H    0.193477
    24  C   -0.164463
    25  H    0.174060
    26  H    0.175671
    27  H    0.170355
 Sum of Mulliken charges =  -0.00000

 Dipole moment (field-independent basis, Debye):
    X=             -0.3904    Y=              1.5116    Z=              1.1074  Tot=              1.9141
 Quadrupole moment (field-independent basis, Debye-Ang):
   XX=            -82.5472   YY=            -86.9502   ZZ=            -90.1214
   XY=              4.0433   XZ=              9.7057   YZ=              2.0631

  Exact polarizability:     201.537     -17.368     143.076      36.644      11.797      89.950
 Approx polarizability:     189.007     -23.292     188.121      25.093      11.981     108.388

 ******    1 imaginary frequencies (negative Signs) ******

                      1                      2                      3
                      A                      A                      A
 Frequencies --  -1616.7958                24.9757                30.1805
 Red. masses --      1.1100                 3.8015                 5.6790
 Frc consts  --      1.7096                 0.0014                 0.0030
 IR Inten    --   2352.4257                 0.0303                 0.5626

                      4                      5                      6
                      A                      A                      A
 Frequencies --     34.9649                76.4675               102.8035
 Red. masses --      4.3652                 7.8611                 6.1192
 Frc consts  --      0.0031                 0.0271                 0.0381
 IR Inten    --      0.4561                 5.2709                 0.7407

                      7                      8                      9
                      A                      A                      A
 Frequencies --    129.1294               214.4595               270.1923
 Red. masses --      6.2622                 5.1627                 7.0894
 Frc consts  --      0.0615                 0.1399                 0.3049
 IR Inten    --     26.8922                36.3322                32.5987

                     10                     11                     12
                      A                      A                      A
 Frequencies --    276.7969               364.5269               390.8129
 Red. masses --      5.7617                 6.0865                 6.9793
 Frc consts  --      0.2601                 0.4765                 0.6281
 IR Inten    --      8.6137               238.0933                69.9248

                     13                     14                     15
                      A                      A                      A
 Frequencies --    422.0196               425.3387               466.8812
 Red. masses --      3.0278                 3.0188                 5.6534
 Frc consts  --      0.3177                 0.3218                 0.7261
 IR Inten    --      0.0379                 1.1429               126.4979

                     16                     17                     18
                      A                      A                      A
 Frequencies --    521.4611               541.0422               547.7653
 Red. masses --      3.2795                 4.7367                 4.0835
 Frc consts  --      0.5254                 0.8169                 0.7219
 IR Inten    --      9.9087                 1.9216                23.2102

                     19                     20                     21
                      A                      A                      A
 Frequencies --    634.0099               636.6559               659.2546
 Red. masses --      6.5031                 6.4376                 7.5206
 Frc consts  --      1.5402                 1.5374                 1.9258
 IR Inten    --     26.2712                 2.3854               103.1361

                     22                     23                     24
                      A                      A                      A
 Frequencies --    683.9467               711.3424               714.8714
 Red. masses --      6.9944                 2.1337                 2.0609
 Frc consts  --      1.9277                 0.6361                 0.6205
 IR Inten    --     77.8451                13.4804                18.3555

                     25                     26                     27
                      A                      A                      A
 Frequencies --    786.1874               788.4265               795.4151
 Red. masses --      1.6691                 1.7447                 6.3944
 Frc consts  --      0.6078                 0.6390                 2.3836
 IR Inten    --     77.6908               197.3298               612.1783

                     28                     29                     30
                      A                      A                      A
 Frequencies --    839.0513               850.1953               864.4832
 Red. masses --      6.7031                 1.2503                 1.2494
 Frc consts  --      2.7804                 0.5325                 0.5501
 IR Inten    --    400.8115                 1.4834                 0.0559

                     31                     32                     33
                      A                      A                      A
 Frequencies --    924.4321               936.1018               936.9454
 Red. masses --      1.4470                 1.5232                 6.0936
 Frc consts  --      0.7286                 0.7864                 3.1518
 IR Inten    --     22.1513                 7.2206                 2.9062

                     34                     35                     36
                      A                      A                      A
 Frequencies --    983.9491               990.2893              1011.9405
 Red. masses --      1.3434                 1.3416                 1.2718
 Frc consts  --      0.7663                 0.7752                 0.7673
 IR Inten    --      0.2957                 0.0202                 0.9134

                     37                     38                     39
                      A                      A                      A
 Frequencies --   1015.1905              1027.7488              1029.3423
 Red. masses --      1.2739                 6.0160                 6.0404
 Frc consts  --      0.7735                 3.7439                 3.7708
 IR Inten    --      0.3433                 0.4882                 0.3795

                     40                     41                     42
                      A                      A                      A
 Frequencies --   1066.4161              1069.6415              1119.9352
 Red. masses --      2.0305                 2.1697                 1.4773
 Frc consts  --      1.3605                 1.4626                 1.0917
 IR Inten    --      9.1905                 0.5308                 9.7527

                     43                     44                     45
                      A                      A                      A
 Frequencies --   1125.0281              1172.3315              1200.4777
 Red. masses --      1.5134                 3.8018                 1.1322
 Frc consts  --      1.1286                 3.0785                 0.9614
 IR Inten    --     34.5557               148.3850                 3.7177

                     46                     47                     48
                      A                      A                      A
 Frequencies --   1201.6044              1209.3464              1221.2180
 Red. masses --      1.1208                 1.1497                 1.1319
 Frc consts  --      0.9535                 0.9907                 0.9946
 IR Inten    --      0.8388                 6.1303                29.9918

                     49                     50                     51
                      A                      A                      A
 Frequencies --   1223.1048              1278.8296              1349.9210
 Red. masses --      1.1623                 3.7675                 3.2995
 Frc consts  --      1.0244                 3.6302                 3.5425
 IR Inten    --     49.6592               224.8273                 1.0255

                     52                     53                     54
                      A                      A                      A
 Frequencies --   1356.1455              1372.0102              1374.5887
 Red. masses --      2.7498                 1.7765                 1.6397
 Frc consts  --      2.9797                 1.9703                 1.8255
 IR Inten    --      8.9685                 2.4208                 1.8879

                     55                     56                     57
                      A                      A                      A
 Frequencies --   1442.6362              1519.7604              1522.7326
 Red. masses --      4.8397                 2.3851                 2.3497
 Frc consts  --      5.9345                 3.2456                 3.2100
 IR Inten    --    245.5453                 5.5218                 3.8784

                     58                     59                     60
                      A                      A                      A
 Frequencies --   1559.7910              1572.9315              1678.3468
 Red. masses --      2.3879                 2.8065                 6.1594
 Frc consts  --      3.4229                 4.0910                10.2224
 IR Inten    --    124.8282                74.8848                13.0863

                     61                     62                     63
                      A                      A                      A
 Frequencies --   1687.6899              1695.6122              1700.1929
 Red. masses --      6.3403                 5.8769                 5.8928
 Frc consts  --     10.6401                 9.9552                10.0362
 IR Inten    --      6.7028                55.7168                36.2665

                     64                     65                     66
                      A                      A                      A
 Frequencies --   2014.1715              2148.0697              3213.2646
 Red. masses --      1.4696                 2.8036                 1.0855
 Frc consts  --      3.5126                 7.6218                 6.6032
 IR Inten    --    388.4449               388.3235                 1.9235

                     67                     68                     69
                      A                      A                      A
 Frequencies --   3213.5778              3221.3824              3221.4858
 Red. masses --      1.0858                 1.0893                 1.0894
 Frc consts  --      6.6068                 6.6601                 6.6612
 IR Inten    --      2.5663                 5.7492                 5.6795

                     70                     71                     72
                      A                      A                      A
 Frequencies --   3230.0810              3231.4491              3239.1118
 Red. masses --      1.0937                 1.0930                 1.0957
 Frc consts  --      6.7234                 6.7246                 6.7733
 IR Inten    --     22.9616                21.4586                14.3231

                     73                     74                     75
                      A                      A                      A
 Frequencies --   3240.4490              3244.7668              3251.5932
 Red. masses --      1.0972                 1.0980                 1.0960
 Frc consts  --      6.7880                 6.8109                 6.8275
 IR Inten    --     16.9004                 7.1554                 1.8149

 - Thermochemistry -
 -------------------
 Temperature   298.150 Kelvin.  Pressure   1.00000 Atm.
 Atom     1 has atomic number  6 and mass  12.00000

 Molecular mass:   213.07898 amu.
 Principal axes and moments of inertia in atomic units:
                           1         2         3
     Eigenvalues --  1235.551107719.981238350.14923
           X            0.95777  -0.11183  -0.26491
           Y            0.00458   0.92710  -0.37478
           Z            0.28751   0.35774   0.88846
 This molecule is an asymmetric top.
 Rotational symmetry number  1.
 Warning -- assumption of classical behavior for rotation
           may cause significant error
 Rotational temperatures (Kelvin)      0.07010     0.01122     0.01037
 Rotational constants (GHZ):           1.46068     0.23378     0.21613
    1 imaginary frequencies ignored.
 Zero-point vibrational energy     549380.8 (Joules/Mol)
                                  131.30516 (Kcal/Mol)
 Warning -- explicit consideration of  17 degrees of freedom as
           vibrations may cause significant error
 Vibrational temperatures:     35.93    43.42    50.31   110.02   147.91
          (Kelvin)            185.79   308.56   388.75   398.25   524.47
                              562.29   607.19   611.97   671.74   750.27
                              778.44   788.11   912.20   916.01   948.52
                              984.05  1023.46  1028.54  1131.15  1134.37
                             1144.42  1207.21  1223.24  1243.80  1330.05
                             1346.84  1348.06  1415.68  1424.81  1455.96
                             1460.63  1478.70  1480.99  1534.33  1538.98
                             1611.34  1618.66  1686.72  1727.22  1728.84
                             1739.98  1757.06  1759.77  1839.95  1942.24
                             1951.19  1974.02  1977.73  2075.63  2186.60
                             2190.87  2244.19  2263.10  2414.77  2428.21
                             2439.61  2446.20  2897.94  3090.59  4623.17
                             4623.62  4634.85  4635.00  4647.37  4649.33
                             4660.36  4662.28  4668.50  4678.32

 Zero-point correction=                           0.209248 (Hartree/Particle)
 Thermal correction to Energy=                    0.222256
 Thermal correction to Enthalpy=                  0.223201
 Thermal correction to Gibbs Free Energy=         0.166719
 Sum of electronic and zero-point Energies=           -706.696631
 Sum of electronic and thermal Energies=              -706.683623
 Sum of electronic and thermal Enthalpies=            -706.682679
 Sum of electronic and thermal Free Energies=         -706.739160

                     E (Thermal)             CV                S
                      KCal/Mol        Cal/Mol-Kelvin    Cal/Mol-Kelvin
 Total                  139.468             49.805            118.875
 Electronic               0.000              0.000              0.000
 Translational            0.889              2.981             41.973
 Rotational               0.889              2.981             32.743
 Vibrational            137.691             43.843             44.159
 Vibration     1          0.593              1.985              6.193
 Vibration     2          0.594              1.984              5.818
 Vibration     3          0.594              1.982              5.526
 Vibration     4          0.599              1.965              3.980
 Vibration     5          0.605              1.947              3.400
 Vibration     6          0.612              1.924              2.959
 Vibration     7          0.644              1.819              2.005
 Vibration     8          0.674              1.728              1.595
 Vibration     9          0.678              1.716              1.553
 Vibration    10          0.738              1.545              1.103
 Vibration    11          0.758              1.490              0.997
 Vibration    12          0.784              1.422              0.885
 Vibration    13          0.787              1.415              0.874
 Vibration    14          0.824              1.324              0.746
 Vibration    15          0.876              1.202              0.607
 Vibration    16          0.896              1.159              0.563
 Vibration    17          0.903              1.145              0.549

 Normal termination of Gaussian 16 at Tue May 28 17:08:53 2024.
