 Gaussian 16, Revision C.01,
 Gaussian 16:  ES64L-G16RevC.01  3-Jul-2019

 ---------------------------
 #P OPT wB97XD/6-31G* NoSymm
 ---------------------------

 ---------------------------
 CHOL Geometry (Unoptimized)
 ---------------------------
 Symbolic Z-matrix:
 Charge =  0 Multiplicity = 1

 SCF Done:  E(RwB97XD) =  -307.283667052     A.U. after   17 cycles
 SCF Done:  E(RwB97XD) =  -307.323628692     A.U. after   14 cycles
 SCF Done:  E(RwB97XD) =  -307.357545506     A.U. after   14 cycles
 SCF Done:  E(RwB97XD) =  -307.359645249     A.U. after   13 cycles
 SCF Done:  E(RwB97XD) =  -307.359874197     A.U. after   12 cycles
 SCF Done:  E(RwB97XD) =  -307.360218491     A.U. after   11 cycles
 SCF Done:  E(RwB97XD) =  -307.360261079     A.U. after   11 cycles
 SCF Done:  E(RwB97XD) =  -307.360269392     A.U. after   10 cycles
 SCF Done:  E(RwB97XD) =  -307.360270414     A.U. after    8 cycles
 Optimization completed.
    -- Stationary point found.

                          Input orientation:
 ---------------------------------------------------------------------
 Center     Atomic      Atomic             Coordinates (Angstroms)
 Number     Number       Type             X           Y           Z
 ---------------------------------------------------------------------
      1          1           0        4.500426    0.618481    0.218363
      2          8           0        5.112110   -0.126020    0.176571
      3          6           0        6.011820   -0.021057    1.192281
      4          6           0        5.989125    1.027649    2.111762
      5          6           0        6.983845   -1.017350    1.292564
      6          6           0        6.939331    1.075676    3.128346
      7          1           0        5.231566    1.805060    2.034343
      8          6           0        7.925697   -0.957224    2.311343
      9          1           0        6.983532   -1.824177    0.567129
     10          6           0        7.911435    0.086955    3.235298
     11          1           0        6.914307    1.895844    3.839927
     12          1           0        8.679613   -1.735709    2.383880
     13          1           0        8.650493    0.127704    4.028878
 ---------------------------------------------------------------------

 Alpha  occ. eigenvalues --  -19.30043 -10.36027 -10.30289 -10.30083 -10.29953
 Alpha  occ. eigenvalues --  -10.29297 -10.29218  -1.16271  -0.94830  -0.84496
 Alpha  occ. eigenvalues --   -0.83303  -0.71593  -0.69231  -0.63246  -0.58477
 Alpha  occ. eigenvalues --   -0.55058  -0.52051  -0.50500  -0.49540  -0.47112
 Alpha  occ. eigenvalues --   -0.43914  -0.41944  -0.41684  -0.32595  -0.29348
 Alpha virt. eigenvalues --    0.07218   0.08867   0.15992   0.17615   0.23119
 Alpha virt. eigenvalues --    0.24340   0.25681   0.27714   0.27798   0.32936
 Alpha virt. eigenvalues --    0.38321   0.38743   0.42712   0.43926   0.56651

 Mulliken charges:
               1
     1  H    0.423670
     2  O   -0.658587
     3  C    0.354198
     4  C   -0.238172
     5  C   -0.201104
     6  C   -0.166390
     7  H    0.153243
     8  C   -0.168155
     9  H    0.178077
    10  C   -0.176055
    11  H    0.167521
    12  H    0.168306
    13  H    0.163448
 Sum of Mulliken charges =  -0.00000

 Dipole moment (field-independent basis, Debye):
    X=             -0.5775    Y=              1.1738    Z=              0.4618  Tot=              1.3873
 Quadrupole moment (field-independent basis, Debye-Ang):
   XX=            -43.9750   YY=            -37.4281   ZZ=            -39.2515
   XY=              2.2166   XZ=              4.7690   YZ=              2.2837

 Normal termination of Gaussian 16 at Tue May 28 16:30:47 2024.
